# ------------- TUNGSTEN ----------- #
Name: Tungsten
Z: 74		    		        # Atomic Number
Am: 183.84	    		        # Atomic Mass
Density: 19.35      		        # [g/cm3] Density
MeltingPoint: 3680  		        # [K]
WorkFunction: 4.5		            # [eV]
Emissivity: 0.5				        #  
SpecificHeat: Tungsten_Cp		            # [J/gK]
Conductivity: Tungsten_k	            # [W/mK]